# vtk DataFile Version 5.1
vtk output
ASCII
DATASET POLYDATA
POINTS 279 float
0 100 0 0 100 1 0 100 2 
0 100 3 0 100 4 0 100 5 
0 100 6 0 100 7 0 100 8 
0 100 9 0 100 10 0 100 11 
0 100 12 0 100 13 0 100 14 
0 100 15 0 100 16 0 100 17 
0 100 18 0 100 19 0 100 20 
0 100 21 0 100 22 0 100 23 
0 100 24 0 100 24 0 100 25 
0 100 26 0 100 27 0 100 28 
110 30 0 110 30 1 110 30 2 
110 30 3 110 30 4 110 30 5 
110 30 6 110 30 7 110 30 8 
110 30 9 110 30 10 110 30 11 
110 30 12 110 30 13 110 30 14 
110 30 15 110 30 16 110 30 17 
110 30 18 110 30 19 110 30 20 
110 30 21 110 30 22 110 30 23 
110 30 24 110 30 25 110 30 26 
110 30 27 110 30 28 80 0 0 
80 0 1 80 0 2 80 0 3 
80 0 4 80 0 5 80 0 6 
80 0 7 80 0 8 80 0 9 
80 0 10 80 0 11 80 0 12 
80 0 13 80 0 14 80 0 15 
80 0 16 80 0 17 80 0 18 
80 0 19 80 0 20 80 0 21 
80 0 22 80 0 23 80 0 24 
80 0 25 80 0 26 80 0 27 
80 0 27 80 0 28 80 80 0 
80 80 1 80 80 2 80 80 3 
80 80 4 80 80 5 80 80 6 
80 80 7 80 80 8 80 80 9 
80 80 10 80 80 11 80 80 12 
80 80 13 80 80 14 80 80 15 
80 80 16 80 80 17 80 80 18 
80 80 19 80 80 20 80 80 21 
80 80 22 80 80 23 80 80 24 
80 80 25 80 80 26 80 80 27 
80 80 28 140 100 0 140 100 1 
140 100 2 140 100 3 140 100 4 
140 100 5 140 100 6 140 100 7 
140 100 8 140 100 9 140 100 10 
140 100 11 140 100 12 140 100 13 
140 100 14 140 100 15 140 100 16 
140 100 17 140 100 18 140 100 19 
140 100 20 140 100 21 140 100 22 
140 100 23 140 100 24 140 100 25 
140 100 26 140 100 27 140 100 28 
90 145 0 90 145 1 90 145 2 
90 145 6 90 145 7 90 145 8 
90 145 9 90 145 10 90 145 11 
90 145 12 90 145 19 90 145 20 
90 145 21 90 145 22 90 145 23 
90 145 27 90 145 28 25 45 0 
25 45 1 25 45 2 25 45 3 
25 45 4 25 45 5 25 45 6 
25 45 7 25 45 18 25 45 19 
25 45 20 25 45 21 25 45 22 
25 45 23 25 45 24 25 45 25 
25 45 26 25 45 27 25 45 28 
140 140 0 140 140 1 140 140 2 
140 140 3 140 140 4 140 140 5 
140 140 6 140 140 7 140 140 8 
140 140 9 140 140 12 140 140 13 
140 140 14 140 140 15 140 140 16 
140 140 17 140 140 18 140 140 19 
140 140 20 140 140 21 90 20 0 
90 20 1 90 20 2 90 20 3 
90 20 4 90 20 5 90 20 6 
90 20 7 90 20 8 90 20 9 
90 20 10 90 20 11 90 20 12 
90 20 13 90 20 14 90 20 15 
90 20 16 90 20 17 90 20 18 
90 20 19 90 20 20 90 20 21 
90 20 22 90 20 23 90 20 24 
90 20 25 90 20 26 90 20 27 
90 20 28 100 130 0 100 130 1 
100 130 2 100 130 3 100 130 4 
100 130 6 100 130 7 100 130 8 
100 130 9 100 130 10 100 130 11 
100 130 12 100 130 12 100 130 13 
100 130 14 100 130 15 100 130 16 
100 130 18 100 25 0 100 25 1 
100 25 2 100 25 3 100 25 4 
100 25 5 100 25 6 100 25 7 
100 25 8 100 25 9 100 25 10 
100 25 11 100 25 12 100 25 13 
100 25 14 100 25 15 100 25 16 
100 25 17 100 25 18 100 25 19 
100 25 20 100 25 21 100 25 22 
100 25 23 100 25 24 100 25 25 
100 25 26 100 25 27 100 25 28 

POINT_DATA 279
SCALARS property float
LOOKUP_TABLE default
0.2 0.2 0.2 0.2 0.2 0.2 0.2 0.2 0.2 
0.2 0.2 0.2 0.2 0.2 0.2 0.2 0.2 0.2 
0.2 0.2 0.2 0.2 0.2 0.2 0.2 0.17 0.17 
0.17 0.17 0.17 0.26 0.26 0.26 0.26 0.26 0.26 
0.26 0.26 0.26 0.26 0.26 0.26 0.25 0.24 0.24 
0.24 0.24 0.22 0.22 0.22 0.22 0.22 0.22 0.22 
0.22 0.22 0.22 0.22 0.22 0.27 0.27 0.27 0.27 
0.2 0.2 0.2 0.2 0.2 0.13 0.13 0.22 0.22 
0.22 0.22 0.22 0.23 0.24 0.24 0.24 0.24 0.24 
0.24 0.24 0.14 0.14 0.14 0.14 0.22 0.22 0.18 
0.18 0.18 0.18 0.18 0.18 0.18 0.18 0.18 0.09 
0.09 0.09 0.19 0.19 0.19 0.19 0.19 0.19 0.19 
0.19 0.19 0.19 0.19 0.16 0.15 0.15 0.22 0.2 
0.15 0.27 0.27 0.27 0.26 0.27 0.27 0.27 0.26 
0.27 0.26 0.27 0.27 0.27 0.26 0.27 0.27 0.27 
0.27 0.27 0.26 0.27 0.27 0.27 0.26 0.27 0.27 
0.15 0.15 0.15 0.11 0.11 0.11 0.11 0.11 0.11 
0.09 0.09 0.09 0.09 0.11 0.11 0.11 0.11 0.12 
0.12 0.12 0.11 0.11 0.1 0.1 0.1 0.09 0.09 
0.09 0.07 0.07 0.07 0.11 0.15 0.15 0.22 0.22 
0.22 0.22 0.21 0.2 0.2 0.2 0.2 0.2 0.2 
0.2 0.2 0.2 0.2 0.14 0.14 0.14 0.14 0.14 
0.14 0.14 0.14 0.14 0.14 0.24 0.24 0.24 0.24 
0.22 0.21 0.21 0.21 0.21 0.2 0.2 0.18 0.18 
0.18 0.18 0.18 0.18 0.18 0.18 0.18 0.18 0.18 
0.18 0.18 0.18 0.18 0.18 0.18 0.18 0.19 0.19 
0.09 0.06 0.06 0.1 0.1 0.1 0.1 0.18 0.18 
0.18 0.1 0.1 0.1 0.08 0.08 0.11 0.24 0.24 
0.23 0.24 0.2 0.2 0.2 0.2 0.2 0.2 0.22 
0.21 0.2 0.16 0.18 0.2 0.2 0.2 0.13 0.2 
0.2 0.2 0.2 0.2 0.18 0.19 0.2 0.2 0.2 

