# vtk DataFile Version 5.1
vtk output
ASCII
DATASET POLYDATA
POINTS 231 float
0 120 0 0 120 1 0 120 5 
0 120 6 0 120 7 0 120 8 
0 120 10 0 120 11 0 120 13 
0 120 14 0 120 15 0 120 16 
0 120 17 0 120 18 0 120 20 
0 120 21 0 120 21 0 120 23 
0 120 24 0 120 25 0 120 27 
0 120 28 0 120 29 10 20 0 
10 20 1 10 20 3 10 20 5 
10 20 6 10 20 7 10 20 8 
10 20 9 10 20 11 10 20 12 
10 20 13 10 20 14 10 20 15 
10 20 17 10 20 18 10 20 19 
10 20 20 10 20 21 10 20 22 
10 20 23 10 20 25 10 20 26 
10 20 27 10 20 28 10 20 29 
70 55 0 70 55 1 70 55 2 
70 55 3 70 55 4 70 55 5 
70 55 6 70 55 7 70 55 8 
70 55 10 70 55 11 70 55 12 
70 55 13 70 55 14 70 55 15 
70 55 16 70 55 17 70 55 18 
70 55 19 70 55 20 70 55 21 
70 55 22 70 55 23 70 55 24 
70 55 25 70 55 26 70 55 27 
70 55 28 70 55 29 85 145 0 
85 145 1 85 145 2 85 145 3 
85 145 5 85 145 6 85 145 7 
85 145 8 85 145 9 85 145 10 
85 145 11 85 145 14 85 145 15 
85 145 16 85 145 18 85 145 19 
85 145 20 85 145 21 85 145 23 
85 145 24 85 145 25 85 145 27 
85 145 28 85 145 29 90 0 3 
90 0 4 90 0 6 90 0 7 
90 0 8 90 0 9 90 0 10 
90 0 11 90 0 12 90 0 14 
90 0 15 90 0 16 90 0 17 
90 0 18 90 0 19 90 0 20 
90 0 21 90 0 23 90 0 24 
90 0 25 90 0 26 90 0 27 
90 0 28 90 0 29 90 120 0 
90 120 1 90 120 2 90 120 3 
90 120 4 90 120 6 90 120 7 
90 120 8 90 120 9 90 120 10 
90 120 11 90 120 12 90 120 13 
90 120 15 90 120 16 90 120 17 
90 120 18 90 120 20 90 120 21 
90 120 22 90 120 22 90 120 24 
90 120 25 90 120 25 90 120 26 
90 120 28 90 120 29 105 0 0 
105 0 1 105 0 2 105 0 3 
105 0 4 105 0 6 105 0 7 
105 0 8 105 0 9 105 0 10 
105 0 11 105 0 17 105 0 19 
105 0 20 105 0 21 105 0 22 
105 0 23 105 0 25 105 0 26 
105 0 27 105 0 28 105 0 29 
140 80 0 140 80 1 140 80 2 
140 80 3 140 80 4 140 80 5 
140 80 6 140 80 7 140 80 8 
140 80 9 140 80 10 140 80 12 
140 80 13 140 80 14 140 80 15 
140 80 16 140 80 17 140 80 18 
140 80 19 140 80 20 140 80 21 
140 80 22 140 80 23 140 80 24 
140 80 25 140 80 26 140 80 27 
140 80 28 140 80 29 145 130 0 
145 130 1 145 130 2 145 130 3 
145 130 4 145 130 5 145 130 6 
145 130 7 145 130 8 145 130 9 
145 130 10 145 130 11 145 130 13 
145 130 14 145 130 15 145 130 16 
145 130 17 145 130 18 145 130 19 
145 130 20 145 130 21 145 130 22 
145 130 23 145 130 24 145 130 25 
145 130 26 145 130 27 145 130 29 

POINT_DATA 231
SCALARS property float
LOOKUP_TABLE default
0.12 0.12 0.08 0.2 0.12 0.12 0.09 0.09 0.09 
0.09 0.09 0.09 0.16 0.16 0.16 0.16 0.24 0.24 
0.15 0.15 0.15 0.15 0.15 0.24 0.24 0.24 0.24 
0.21 0.21 0.11 0.21 0.21 0.21 0.21 0.21 0.21 
0.21 0.21 0.21 0.21 0.16 0.16 0.16 0.16 0.16 
0.16 0.16 0.22 0.19 0.16 0.16 0.16 0.16 0.16 
0.16 0.16 0.16 0.16 0.16 0.16 0.16 0.16 0.16 
0.16 0.16 0.16 0.16 0.16 0.16 0.16 0.16 0.16 
0.16 0.16 0.16 0.16 0.16 0.13 0.18 0.18 0.18 
0.18 0.18 0.18 0.18 0.18 0.18 0.18 0.24 0.24 
0.24 0.24 0.24 0.24 0.21 0.21 0.18 0.18 0.18 
0.18 0.18 0.13 0.13 0.13 0.13 0.21 0.21 0.21 
0.21 0.21 0.21 0.21 0.21 0.21 0.21 0.21 0.21 
0.21 0.21 0.21 0.21 0.21 0.21 0.21 0.21 0.23 
0.23 0.23 0.23 0.23 0.23 0.23 0.23 0.23 0.23 
0.12 0.25 0.25 0.25 0.25 0.23 0.23 0.23 0.18 
0.18 0.16 0.16 0.16 0.22 0.22 0.22 0.22 0.23 
0.23 0.23 0.23 0.23 0.23 0.23 0.23 0.23 0.18 
0.18 0.09 0.09 0.22 0.22 0.22 0.22 0.22 0.22 
0.22 0.22 0.22 0.23 0.23 0.23 0.23 0.23 0.23 
0.23 0.23 0.23 0.23 0.23 0.23 0.23 0.23 0.23 
0.23 0.23 0.23 0.23 0.23 0.23 0.23 0.23 0.23 
0.23 0.23 0.23 0.23 0.23 0.15 0.15 0.15 0.15 
0.15 0.15 0.15 0.15 0.15 0.15 0.15 0.15 0.15 
0.15 0.15 0.15 0.15 0.15 0.15 0.15 0.15 0.15 
0.15 0.15 0.15 0.15 0.16 0.16 
